data_174-ICSD
#?2010 by Fachinformationszentrum Karlsruhe, and the U.S. Secretary of 
#Commerce on behalf of the United States.  All rights reserved.
_database_code_ICSD                174
_audit_creation_date               1980/01/01
_audit_update_record               2006/04/01
_chemical_name_systematic          'Silicon Oxide'
_chemical_formula_structural       'Si O2'
_chemical_formula_sum              'O2 Si1'
_chemical_name_mineral             'Quartz low'
_publ_section_title
;
Refinement of the crystal structure of low-quartz
;
loop_
_citation_id
_citation_journal_abbrev
_citation_year
_citation_journal_volume
_citation_page_first
_citation_page_last
_citation_journal_id_ASTM
primary 'Acta Crystallographica B (24,1968-38,1982)' 1976 32 2456 2459 ACBCAR
2 Silikaty 1974 18 1 8 SIKTAN
_publ_author_name                  'le Page, Y.;Donnay, G.'
_cell_length_a                     4.9134
_cell_length_b                     4.9134
_cell_length_c                     5.4052
_cell_angle_alpha                  90.
_cell_angle_beta                   90.
_cell_angle_gamma                  120.
_cell_volume                       113.01
_cell_formula_units_Z              3
_symmetry_space_group_name_H-M     'P 32 2 1'
_symmetry_Int_Tables_number        154
_refine_ls_R_factor_all            0.0157
loop_
_symmetry_equiv_pos_site_id
_symmetry_equiv_pos_as_xyz
  1	'-x, -x+y, -z+2/3'
  2	'x-y, -y, -z+1/3'
  3	'y, x, -z'
  4	'-x+y, -x, z+1/3'
  5	'-y, x-y, z+2/3'
  6	'x, y, z'
loop_
_atom_type_symbol
_atom_type_oxidation_number
O2-	-2
Si4+	4
loop_
_atom_site_label
_atom_site_type_symbol
_atom_site_symmetry_multiplicity
_atom_site_Wyckoff_symbol
_atom_site_fract_x
_atom_site_fract_y
_atom_site_fract_z
_atom_site_occupancy
_atom_site_attached_hydrogens
Si1 Si4+ 3 a 0.46987(9) 0 0.6667 1. 0 
O1 O2- 6 c 0.4141(2) 0.2681(2) 0.7855(1) 1. 0 

loop_
_atom_site_aniso_label
_atom_site_aniso_type_symbol
_atom_site_aniso_U_11
_atom_site_aniso_U_22
_atom_site_aniso_U_33
_atom_site_aniso_U_12
_atom_site_aniso_U_13
_atom_site_aniso_U_23
Si1 Si4+ 0.0066(1) 0.0051(2) 0.0060(1) 0.00255(10) -0.00015(5) -0.0003(1)
O1 O2- 0.0156(4) 0.0115(3) 0.0119(3) 0.0092(3) -0.0029(3) -0.0046(2)
#End of data_174-ICSD


